<?xml version="1.0" ?>
<VTKFile byte_order="LittleEndian" type="UnstructuredGrid" version="0.1">
<UnstructuredGrid>
<Piece NumberOfCells="27808" NumberOfPoints="16936">
<Points>
<DataArray Name="vertices" NumberOfComponents="3" format="ascii" type="Float32">620.849 -628.324 0 620.72 -627.235 0 620.378 -625.722 0 619.634 -623.388 0 618.482 -622.153 0 617.618 -620.631 0 616.541 -618.656 0 615.172 -617.599 0 614.183 -616.759 0 613.109 -615.363 0 611.98 -613.541 0 610.268 -612.355 0 609.023 -612.125 0 607.586 -610.971 0 606.836 -609.618 0 605.92 -608.19 0 604.512 -606.576 0 603.14 -605.489 0 601.701 -604.587 0 600.22 -603.809 0 598.719 -603.029 0 597.249 -602.156 0 595.818 -601.12 0 594.73 -600.062 0 593.86 -598.616 0 593.25 -596.159 0 593.064 -593.936 0 593.551 -591.507 0 594.46 -590.265 0 595.083 -588.727 0 595.642 -587.285 0 596.885 -586.025 0 598.263 -585.198 0 599.22 -583.504 0 599.375 -581.351 0 599.744 -579.601 0 600.412 -577.946 0 601.224 -576.771 0 601.151 -573.577 0 600.339 -572.449 0 598.966 -571.125 0 597.558 -570.071 0 596.137 -569.042 0 594.581 -568.456 0 593.426 -568.067 0 592.317 -567.752 0 590.781 -567.54 0 589.382 -567.418 0 587.939 -567.268 0 586.516 -566.965 0 585.361 -566.972 0 584.084 -567.027 0 582.54 -565.977 0 583.584 -564.278 0 584.949 -563.612 0 586.259 -563.006 0 587.47 -561.06 0 587.434 -558.678 0 586.653 -556.745 0 585.954 -555.015 0 585.93 -553.808 0 586.204 -551.97 0 586.164 -549.862 0 584.502 -548.769 0 583.67 -550.364 0 582.442 -551.519 0 581.298 -552.347 0 579.716 -553.359 0 578.483 -554.592 0 577.479 -555.081 0 576.291 -555.125 0 574.943 -554.633 0 573.19 -553.468 0 571.97 -552.35 0 570.583 -551.686 0 569.18 -551.49 0 567.914 -551.622 0 566.56 -552.901 0 565.774 -553.632 0 564.089 -553.314 0 562.532 -552.327 0 560.26 -552.011 0 558.471 -551.359 0 557.746 -551.028 0 558.488 -550.154 0 559.826 -550.418 0 561.162 -551.521 0 563.868 -551.081 0 564.831 -549.884 0 564.303 -548.186 0 563.274 -547.093 0 561.775 -546.332 0 560.63 -547.032 0 559.604 -548.184 0 559.849 -545.917 0 559.073 -544.204 0 557.673 -542.988 0 556.34 -541.851 0 557.573 -540.69 0 558.824 -539.587 0 560.013 -538.334 0 561.14 -537.552 0 560.726 -533.552 0 559.898 -533.155 0 559.377 -531.431 0 559.16 -529.181 0 560.222 -528.371 0 559.805 -526.091 0 558.602 -525.715 0 557.565 -525.333 0 555.937 -525.384 0 554.522 -525.954 0 553.431 -526.494 0 552.132 -526.63 0 550.856 -526.993 0 549.692 -527.083 0 548.156 -525.784 0 546.951 -526.814 0 545.34 -528.057 0 544.47 -529.421 0 543.228 -529.463 0 542.2 -529.248 0 540.922 -529.396 0 539.37 -529.735 0 538.043 -530.138 0 537.042 -530.87 0 535.554 -531.342 0 533.941 -531.186 0 532.62 -530.299 0 531.473 -528.571 0 530.064 -527.172 0 528.598 -526.455 0 527.12 -525.67 0 526.998 -524.558 0 528.246 -524.027 0 529.586 -524.209 0 530.758 -524.82 0 532.302 -525.384 0 533.576 -524.773 0 534.819 -524.557 0 536.177 -524.557 0 537.592 -524.991 0 538.854 -525.098 0 540.057 -524.351 0 540.569 -522.691 0 541.178 -521.255 0 540.962 -518.72 0 539.297 -518.224 0 538.034 -516.83 0 536.841 -518.039 0 535.434 -517.06 0 534.367 -516.569 0 532.809 -516.83 0 531.5 -517.006 0 530.3 -517.664 0 529.125 -519.498 0 527.999 -520.357 0 526.794 -520.972 0 525.232 -520.099 0 523.583 -518.474 0 522.297 -520.542 0 523.06 -522.01 0 524.211 -523.95 0 523.044 -524.338 0 522.07 -523.612 0 520.305 -523.077 0 519.102 -524.245 0 517.675 -523.378 0 516.412 -523.522 0 515.027 -523.908 0 513.569 -524.29 0 512.378 -523.986 0 511.013 -522.466 0 509.965 -524 0 508.95 -522.554 0 508.191 -521.347 0 506.792 -520.142 0 505.354 -519.281 0 504.123 -517.799 0 503.811 -515.466 0 504.687 -513.676 0 506.067 -512.811 0 506.061 -510.948 0 505.028 -510.572 0 503.936 -511.52 0 503.393 -513.236 0 503.015 -515.011 0 502.621 -516.106 0 501.422 -515.956 0 499.946 -514.705 0 498.588 -514.028 0 496.849 -513.124 0 495.682 -512.21 0 494.352 -511.205 0 493.053 -512.305 0 491.889 -510.971 0 492.647 -509.357 0 493.728 -507.952 0 493.521 -505.729 0 492.592 -506.539 0 491.64 -507.416 0 490.154 -508.321 0 490.395 -510.247 0 489.115 -511.831 0 487.867 -512.021 0 486.898 -512.2 0 485.26 -512.549 0 483.804 -512.209 0 482.292 -510.884 0 481.222 -509.412 0 480.547 -508.068 0 479.4 -506.649 0 478.381 -505.832 0 476.858 -505.694 0 475.508 -505.7 0 473.922 -505.499 0 472.928 -505.502 0 471.678 -505.5 0 470.294 -505.207 0 469.163 -504.967 0 467.733 -504.755 0 466.328 -504.584 0 465.188 -504.03 0 463.822 -502.801 0 462.471 -502.97 0 460.967 -503.945 0 459.484 -504.498 0 458.207 -504.618 0 457.191 -504.429 0 455.862 -504.331 0 454.611 -504.749 0 453.825 -503.922 0 452.926 -502.958 0 451.58 -501.73 0 450.49 -500.155 0 449.357 -498.828 0 448.644 -497.45 0 447.314 -496.246 0 445.958 -495.019 0 444.689 -494.268 0 443.039 -494.957 0 443.195 -497.515 0 442.263 -499.011 0 440.979 -499.52 0 439.698 -499.125 0 438.205 -498.574 0 437.128 -498.034 0 435.819 -497.932 0 434.387 -497.343 0 433.149 -497.923 0 431.977 -499.391 0 430.753 -499.649 0 429.756 -502.019 0 430.036 -504.172 0 428.785 -505.692 0 427.3 -506.426 0 426.112 -506.766 0 424.793 -507.098 0 423.555 -507.383 0 422.291 -507.337 0 420.935 -507.194 0 419.58 -506.945 0 418.312 -506.968 0 416.997 -507.012 0 415.379 -506.539 0 414.283 -505.377 0 415.266 -504.112 0 416.44 -502.769 0 416.209 -500.734 0 415.675 -499.204 0 414.97 -497.522 0 414.103 -495.999 0 413.331 -494.793 0 412.303 -493.176 0 411.244 -491.695 0 410.362 -490.64 0 409.065 -489.268 0 407.703 -488.2 0 406.311 -487.257 0 404.933 -486.235 0 403.487 -485.43 0 402.337 -484.919 0 401.312 -484.49 0 400.021 -484.888 0 398.488 -485.684 0 396.877 -485.164 0 395.826 -484.53 0 394.392 -484.177 0 393.024 -483.869 0 391.887 -483.826 0 390.614 -483.841 0 389.276 -483.571 0 388.085 -483.293 0 386.637 -482.907 0 387.206 -481.655 0 388.892 -478.266 0 390.261 -479.366 0 391.533 -478.976 0 392.82 -478.694 0 394.406 -478.473 0 395.353 -478.111 0 396.617 -477.697 0 397.908 -477.646 0 399.253 -477.251 0 400.628 -476.695 0 401.691 -476.288 0 402.971 -476.039 0 404.243 -475.802 0 405.172 -475.223 0 406.757 -474.615 0 408.011 -474.281 0 408.983 -473.953 0 410.51 -473.499 0 411.808 -473.176 0 413.095 -472.989 0 414.389 -473.076 0 415.459 -473.485 0 417.013 -473.833 0 418.403 -472.707 0 418.738 -470.984 0 418.902 -469.361 0 418.498 -467.669 0 417.608 -466.14 0 416.856 -464.54 0 416.127 -463.027 0 414.703 -462.054 0 413.537 -462.062 0 412.161 -461.82 0 410.826 -461.17 0 409.297 -460.495 0 408.238 -460.31 0 407.12 -459.676 0 405.591 -459.235 0 404.281 -459.192 0 403.079 -459.528 0 401.964 -461.134 0 401.574 -462.507 0 400.956 -464.003 0 399.931 -465.48 0 399.277 -466.465 0 398.368 -466.434 0 398.322 -464.223 0 397.531 -459.873 0 396.439 -457.848 0 395.171 -457.832 0 392.656 -455.765 0 395.337 -453.547 0 395.791 -449.763 0 396.98 -448.845 0 398.017 -449.819 0 397.671 -451.231 0 397.677 -452.806 0 398.703 -453.623 0 399.694 -453.458 0 401.259 -453.75 0 402.576 -453.701 0 403.598 -453.27 0 405.049 -452.868 0 406.627 -452.923 0 407.726 -453.603 0 408.742 -454.071 0 410.404 -453.922 0 411.713 -453.422 0 412.825 -452.851 0 413.814 -452.42 0 415.325 -451.972 0 415.133 -449.477 0 414.404 -448.978 0 412.336 -446.528 0 411.345 -447.027 0 410.101 -448.274 0 408.647 -448.802 0 407.443 -448.137 0 405.766 -448.551 0 404.849 -448.444 0 405.189 -446.342 0 405.924 -445.027 0 405.324 -442.014 0 404.298 -442.411 0 403.174 -442.898 0 401.941 -443.535 0 400.354 -444.518 0 399.36 -445.177 0 398.375 -445.8 0 396.89 -446.41 0 395.407 -447.15 0 394.399 -447.706 0 393.231 -448.258 0 391.866 -448.274 0 390.544 -447.999 0 388.975 -447.548 0 387.943 -447.426 0 386.912 -447.895 0 385.868 -449.319 0 384.262 -450.134 0 381.7 -450.106 0 380.34 -448.651 0 379.992 -446.558 0 380.393 -443.947 0 379.595 -442.312 0 378.8 -440.788 0 379.049 -439.426 0 379.342 -437.525 0 380.023 -435.957 0 379.477 -432.98 0 379.118 -431.027 0 379.759 -429.461 0 380.383 -428.353 0 381.524 -426.301 0 382.653 -425.517 0 384.005 -424.666 0 384.947 -423.855 0 386.005 -423.455 0 387.398 -423.099 0 388.719 -422.878 0 389.787 -422.816 0 391.027 -421.567 0 391.06 -419.871 0 392.294 -419.853 0 393.65 -420.25 0 394.947 -419.805 0 394.401 -417.288 0 395.905 -416.044 0 397.173 -415.985 0 398.539 -416.478 0 399.756 -416.302 0 401.126 -415.795 0 402.417 -415.153 0 403.393 -413.628 0 404.92 -413.025 0 405.87 -412.558 0 406.998 -411.994 0 408.37 -410.855 0 409.549 -410.489 0 410.697 -410.479 0 412.317 -411.357 0 412.921 -412.362 0 414.632 -413.3 0 416.102 -412.718 0 417.386 -412.548 0 418.665 -412.553 0 419.548 -411.549 0 420.005 -409.73 0 420.93 -408.83 0 421.879 -408.198 0 423.392 -407.593 0 424.639 -407.233 0 425.925 -406.915 0 427.171 -406.912 0 428.451 -407.151 0 429.788 -407.634 0 430.43 -406.561 0 431.027 -405.275 0 432.078 -404.355 0 433.034 -403.999 0 434.429 -403.123 0 435.798 -402.306 0 436.482 -403.775 0 436.787 -405.342 0 437.695 -407.519 0 438.367 -409.048 0 440.081 -408.347 0 441.449 -408.07 0 442.59 -410.099 0 443.908 -410.899 0 445.665 -409.193 0 445.34 -407.131 0 446.087 -405.487 0 446.514 -403.837 0 447.446 -402.629 0 448.523 -402.25 0 449.671 -402.433 0 451.171 -402.718 0 452.374 -402.423 0 453.602 -402.536 0 455.303 -403.061 0 456.314 -403.624 0 457.719 -403.986 0 458.893 -403.863 0 460.052 -403.716 0 461.357 -404.962 0 462.765 -404.871 0 464.161 -405.567 0 465.47 -405.156 0 465.339 -402.651 0 465.049 -400.815 0 464.824 -398.55 0 466.228 -399.214 0 467.472 -398.175 0 466.608 -396.692 0 465.606 -395.857 0 464.495 -394.332 0 464.608 -391.118 0 467.019 -390.607 0 469.359 -387.774 0 471.484 -387.245 0 472.759 -387.999 0 474.058 -388.5 0 475.428 -389.818 0 476.587 -390.259 0 477.927 -389.644 0 479.096 -388.083 0 480.306 -387.448 0 481.644 -386.705 0 482.567 -386.281 0 484.114 -385.79 0 485.246 -384.482 0 484.66 -382.641 0 484.222 -381.268 0 483.021 -377.494 0 481.312 -372.119 0 480.611 -369.911 0 478.772 -364.117 0 476.06 -355.549 0 473.703 -348.085 0 471.928 -342.454 0 469.142 -333.6 0 466.836 -326.256 0 465.124 -320.789 0 462.265 -311.646 0 45
[...]
<CellData>
<DataArray Name="cdata 0" NumberOfComponents="1" format="ascii" type="Float32">0.16089 0.178279 0.161589 0.00602538 0 2.33009e-11 0.0045048 9.83314e-05 0.176888 0.000225774 0 6.84534e-15 0 4.45179e-05 3.00319e-13 0.0516365 0 1.74293e-13 9.71899e-14 3.57617e-06 0 0.0488362 8.86894e-05 4.78462e-08 0.00451559 0.000230332 0 0 0 0 0.000780534 0 0 0.000762654 6.81352e-11 4.26482e-12 0 0.00735985 0 0 0 3.98658e-12 1.00059e-05 0 3.10808e-06 5.35243e-15 5.63339e-12 0 0 2.47581e-12 2.09337e-11 0 7.0824e-05 0 0 2.30981e-06 0 2.1362e-13 0 0 0 1.1115e-06 1.49998e-13 0 1.44681e-13 0 0.0534821 0 0 0 0 4.0606e-05 3.04774e-13 1.77568e-13 0 2.42082e-06 0 0.000232365 0 0.000243132 0.000192539 0 0 0 0.000143497 0.155696 0 6.20349e-05 3.27025e-10 0 0.0276417 0 0 0.00045164 0 0 0 0 0.155603 0.201923 0 0.0066355 0 0 2.37187e-05 4.79488e-08 0.0694329 0 3.39549e-05 0 0 0.0716515 3.87243e-05 0 0.0752492 0.0657333 8.87342e-06 4.48586e-10 2.09205e-05 2.47983e-13 4.29389e-10 0 0 1.65719e-11 0 2.07784e-06 3.60623e-06 2.1146e-13 0.000150777 0 1.14759e-09 0 0 0.000157039 0 6.90628e-10 2.56929e-05 9.21407e-10 0.0321756 0 0.0908364 0 1.48129e-11 1.70666e-12 0 0 0.0128171 1.87882e-12 0 0.108007 0 0 0.0327155 0.0304006 0 2.14104e-06 0.0900656 0.029828 0 7.96378e-14 0 0 4.91387e-07 0 4.19738e-06 0.217607 8.4396e-07 1.75089e-07 0.000157431 0 1.15879e-12 3.10332e-09 3.3996e-07 0.000142699 1.69193e-08 1.44172e-07 8.87336e-07 6.43991e-08 8.70171e-13 0 0.00838805 0 0 1.14798e-06 0.210714 0.21806 0.000173534 9.6508e-07 5.84735e-05 0 3.69509e-05 0 5.71129e-08 0.00013298 2.74877e-06 9.6151e-07 9.8198e-06 8.09251e-06 0.000648629 3.03443e-05 7.25763e-06 0.000102904 0.00117449 2.60834e-05 4.26737e-05 2.45976e-06 0.0020832 0.21899 6.67512e-07 4.22036e-07 0 0 7.76025e-11 0.000176067 1.77187e-13 0 7.84671e-14 1.35883e-11 0.095527 0 1.17792e-15 0 7.54771e-05 0 0 9.26585e-10 0 0.00019011 0 0 0 0 0 0 2.94862e-07 0 0.0588813 8.66581e-10 3.72153e-10 0.207594 0 7.70073e-13 2.80494e-12 0.0183537 1.72957e-12 0 3.92894e-12 0.0275403 0.0644816 6.15706e-12 2.74904e-14 5.46346e-15 5.24481e-14 0 2.63815e-11 1.0894e-12 2.44332e-13 2.49383e-12 4.11571e-11 1.66314e-13 9.51364e-13 5.07925e-12 2.40369e-11 0 0.000622722 0 0 2.14975e-07 0 0.16403 0 0 0 0 0 0.000182864 0 0.165542 2.12836e-12 0 0 0 0 0 0 2.47713e-12 0 0.000699471 0 0 0 0 0 0 4.35335e-12 0 4.87961e-13 5.85493e-14 1.77911e-12 6.1869e-14 0 1.25455e-15 0 0 0 1.1876e-15 3.36103e-13 2.82119e-13 0 7.41445e-14 1.80989e-13 3.78191e-15 2.37609e-15 0 2.48814e-12 0 4.07595e-14 0 2.03506e-10 2.05576e-06 1.61429e-09 1.61579e-08 3.74565e-09 7.39325e-10 2.15239e-08 2.46866e-09 2.52653e-07 2.53839e-08 1.41673e-09 1.37948e-07 1.88085e-09 4.56622e-10 4.12469e-09 1.23063e-08 1.38838e-07 2.49231e-08 3.22029e-07 1.85563e-07 5.68546e-07 2.23098e-08 1.64226e-07 2.957e-10 1.26919e-07 2.34051e-10 1.91893e-05 3.34118e-06 7.85256e-06 1.50138e-06 0.000327931 1.86385e-05 3.94309e-05 8.35933e-05 0.00233349 1.51957e-05 1.87579e-06 0.000244398 3.80465e-05 3.07398e-05 0.000154161 2.57832e-06 0.000476365 0.000538833 0.000972487 0.000779675 0.00246032 0.000303495 6.10707e-05 7.2242e-06 0.000810829 9.19896e-07 1.09768e-08 3.89028e-07 8.49258e-12 1.61434e-11 2.34528e-10 1.37306e-11 4.40765e-07 4.2313e-07 3.08455e-11 2.57798e-08 6.43824e-07 7.56284e-09 2.94613e-08 7.31559e-10 2.5711e-11 1.68108e-11 6.32808e-11 3.17034e-12 3.66024e-08 2.52318e-09 9.3151e-09 3.76755e-10 1.91247e-08 4.87022e-10 9.33511e-10 6.77019e-14 4.29784e-07 1.97604e-12 6.28754e-07 2.74494e-06 4.5004e-06 2.17094e-08 0.00022549 0.000157177 9.31216e-07 2.80212e-05 0.00200206 2.89207e-05 4.75249e-07 8.3176e-06 1.23458e-07 2.22272e-08 5.31281e-07 1.83623e-10 3.83697e-06 3.98409e-07 2.25819e-06 3.827e-06 4.72633e-05 2.35453e-06 7.62283e-06 5.09256e-09 3.05414e-05 3.00723e-07 0.000320831 2.35475e-12 0.00269932 1.38368e-10 0.000209874 1.46113e-07 0.000181042 2.02215e-06 0.179825 2.5554e-05 0.106477 0.00564749 0 0 0.0351055 0 6.89125e-10 0.161854 0.00113636 0.00184835 0.002477 0.0112096 0.00551026 0.000140588 0.0154153 0.0109859 0.00324179 0.000866925 0.00038027 0.00431743 0 7.14038e-08 0 0.0013333 0 0 0 0.0326949 0.00493253 0 0 0 2.4822e-10 0.00104428 0.00732548 0.000894067 0.00998643 0.0522539 0.0267061 0.0110284 0.0268272 0.0333628 0.0362337 0.0152959 0.0010457 0.000650662 0.00746638 0.169494 1.07733e-05 0.0646933 0.00197825 0.0219212 0.0046755 0.00745524 0.0620549 0.02379 0.0230626 0.0318632 0.0247849 0.0156118 0.000646242 0.000357107 0.000305523 3.25245e-05 0.00248448 0.0235456 0.000335569 0.00143027 0.000565266 0.00181591 0.00782356 0.000647907 0.00222573 0.000482698 0 0.000367808 0 0.000164866 0.000513197 0.000451483 0 0.000565699 0.0167457 0 0.000597886 0.00259283 0.000164406 0.234198 0.00015068 0.000160682 2.67456e-05 0.00422141 0.000104289 6.33781e-08 2.84811e-11 0.000152559 0.0399329 0.000107652 1.29693e-07 0.000119372 0.0511634 0.000110626 1.47201e-05 0.00480486 0 0.00122272 0.0172017 0.00259458 0.0503892 0.0944251 0.08601 0.0887966 0.143608 0.0898528 0.0554893 0.00229454 0.00108558 0.0122052 2.72161e-05 0.00100364 0.00067583 0.000714517 0.149701 0.000581453 0.016444 0.000595717 0 0.00141029 0.000786321 0.0338135 3.39043e-08 0.000823087 0.148977 0.00204434 0.00073195 3.73682e-14 0.000438192 0.000250065 0.00159626 0.000751219 0.0171209 0.232698 0.132492 0.000569334 5.39025e-08 0.000695512 0.000480464 0.155822 0.000216567 2.34662e-05 0.000705381 0.000546908 0.000690564 0 0.000658378 0.000459215 3.63383e-08 0.000633895 4.39419e-05 0.00077582 6.23552e-05 0.000612941 4.78786e-07 1.3668e-14 0.000600435 0 0.000605706 9.12398e-05 8.4953e-05 0 8.6118e-05 9.41887e-05 0.000479987 2.42888e-08 7.07283e-05 4.95058e-14 0.166112 8.62848e-05 2.92497e-15 8.16396e-05 0 9.28245e-05 0.000605102 0.000611911 0.000602069 0.000966589 0.000688584 0.000542962 6.33272e-14 0.000553334 0.000586803 3.27315e-15 0.000610986 2.59602e-15 0.166561 4.50061e-08 0.000508012 4.60791e-10 2.80258e-15 0.000365404 0.000155825 0.00037218 0.000417655 0 0.000392631 5.02022e-10 0.000531329 0 0.000564299 3.93152e-08 0 0.00846947 3.59379e-10 6.58729e-05 5.16221e-05 4.98026e-05 5.51911e-05 3.10414e-11 5.98615e-09 4.7803e-09 1.95043e-11 5.29067e-05 8.83843e-05 0.002547 9.78903e-06 1.96931e-05 4.30742e-05 6.69943e-06 0.00196563 3.09057e-05 1.0711e-05 0.00221242 0 0 7.74426e-05 8.37481e-06 2.07683e-13 8.11047e-05 9.24605e-05 9.14459e-05 0.00233762 0 8.9755e-05 0 8.85656e-05 8.91351e-05 0.0793412 9.10031e-05 9.18741e-05 0.00332312 8.70274e-06 4.03343e-11 0 8.73461e-06 8.8727e-05 8.84571e-05 0 8.88118e-05 0.00080729 0.000942628 0 0 0.0622998 9.19367e-15 9.68177e-05 8.63626e-06 2.85614e-06 7.86208e-06 0 2.79488e-06 6.83366e-06 6.10608e-06 7.32844e-06 0 7.38687e-06 5.66661e-06 4.62345e-06 5.13955e-06 0.00222161 0.00480125 4.78316e-06 5.08127e-06 5.15867e-06 5.36447e-06 0 0.00130024 5.77803e-06 2.92968e-06 5.75642e-06 8.02421e-06 0.000959227 8.79729e-06 0 6.13977e-06 0 0 3.80065e-06 0 0.000410062 4.94755e-06 8.97592e-06 4.18101e-06 4.56429e-06 4.7713e-06 3.99007e-06 4.14995e-06 3.53445e-06 0 0.129226 3.2176e-06 3.38738e-06 5.77155e-06 0 0 0 0 8.75503e-06 8.48842e-10 8.8962e-05 2.66614e-06 0.000107175 0.000102438 0 0.00118722 9.74055e-05 9.38412e-05 0.00132995 0 8.76659e-05 0 0 0 0.000942701 0 0.000429698 7.66468e-05 0 6.92677e-05 8.51494e-05 0 7.26885e-05 0 0.000122198 9.69084e-05 6.0522e-05 6.52125e-05 0.0036238 5.93025e-05 5.60453e-05 8.66953e-10 4.67885e-05 5.15067e-10 6.96038e-06 5.30458e-05 8.38496e-06 4.62928e-05 2.39287e-07 5.57228e-05 5.47919e-05 0 4.50439e-05 2.1585e-06 0.0606094 5.09856e-05 4.40535e-05 4.98311e-05 4.54177e-05 1.11596e-09 3.18565e-06 0.0157659 6.27086e-05 0.0812681 0 1.81394e-09 2.56873e-06 2.74448e-06 2.80289e-06 1.37219e-06 2.55987e-06 1.72852e-09 0 2.5735e-06 0.0963392 2.67499e-06 3.31694e-05 3.14492e-06 2.88433e-06 0.000942815 2.01669e-06 7.88602e-10 2.14595e-06 4.43945e-14 4.19049e-14 2.09338e-06 2.20321e-06 1.97706e-06 1.59117e-07 2.90829e-06 4.6753e-10 0 4.43976e-05 0.0479334 4.36322e-05 4.39135e-05 0 4.35258e-05 0 4.61379e-10 4.34929e-05 2.12963e-05 0.0685805 0 1.63772e-06 1.93062e-06 1.63339e-06 0 1.58832e-06 1.63364e-06 0 1.62028e-06 8.29956e-10 1.76123e-06 0 0 0 1.81335e-06 0 0 0.00010965 0.0580176 0.0002951 7.92306e-05 9.32516e-06 3.60271e-06 0 0 0 0 0 1.63834e-14 4.52581e-13 3.88024e-15 0 5.25825e-14 0 0.000701047 0 0 0 0 1.47343e-14 0 0 0 1.47387e-12 0 1.02552e-12 0 0.00157447 2.28873e-06 1.17113e-09 2.0997e-06 0.00227219 0.000839664 1.14184e-06 0.00672112 0.00326901 1.7804e-06 0.00537933 1.29227e-06 5.46003e-11 1.74887e-09 4.76812e-10 1.65363e-11 9.73398e-07 6.25726e-09 2.50775e-08 3.09648e-06 3.94988e-07 6.75305e-09 3.19882e-06 8.09705e-07 8.09877e-07 1.08533e-10 3.77428e-06 2.83258e-14 0.0450393 4.179e-09 0 2.30172e-09 0 0 0 0 0 0 0 0.0437504 0.193964 0.00102915 0 0 0 0 0 0 0 0 0 0 2.69831e-14 2.96913e-14 7.35167e-12 8.61065e-15 6.92718e-12 1.17135e-08 5.71255e-09 1.71814e-07 2.05405e-07 1.44063e-09 0 5.33231e-08 5.80865e-15 1.1539e-15 2.77739e-13 1.56836e-15 1.4807e-10 3.23961e-10 1.47106e-09 7.5846e-12 1.3609e-09 4.39783e-12 2.13948e-11 1.06762e-11 2.62883e-09 0 1.21196e-10 0 7.81789e-07 0 0 2.49064e-10 0 7.78856e-07 0 0.250022 0 0 0 0.196018 0 0 3.57921e-07 7.884e-07 4.39915e-07 0 4.0592e-07 0 0 6.10485e-07 0 3.65482e-07 0.128217 4.13135e-07 0.000762489 3.66191e-06 2.36866e-06 4.88885e-11 1.0652e-12 2.05939e-06 0 1.91968e-06 2.28735e-06 0 2.44147e-06 0 7.35927e-08 1.3424e-05 6.38331e-10 7.32426e-08 7.2295e-08 0.000658114 7.18136e-08 0 0 7.23438e-08 2.0515e-07 0 0.00161208 0.000655932 0.0561926 7.14791e-08 2.57638e-07 3.22545e-07 0 1.90216e-07 3.40331e-10 0 1.69427e-07 0.000338385 0.00310857 1.4275e-07 0 1.08803e-07 5.82692e-10 5.83891e-08 2.75354e-08 1.14156e-09 0 0 3.95826e-10 2.15224e-05 5.03392e-08 7.76393e-10 0.00966539 6.95316e-10 7.2861e-08 2.53372e-07 6.52304e-10 7.55168e-08 7.19311e-08 6.78193e-10 2.78693e-11 7.48601e-13 1.02993e-07 8.03858e-10 4.48183e-15 6.42569e-11 0 1.05566e-10 0.000106067 6.01595e-10 6.59909e-10 0 6.88063e-10 6.72038e-10 0.142565 0 0 0 6.82266e-10 5.91248e-09 6.36392e-15 1.67687e-07 7.05721e-08 3.41294e-10 1.2141e-10 7.84182e-07 5.18149e-06 2.33987e-07 2.68536e-09 0.203002 9.04566e-07 7.8416e-10 0 0 0 3.09084e-14 8.76623e-12 0 0 0 0 0 9.34443e-15 4.57729e-14 1.96248e-12 2.07189e-11 2.67584e-12 1.64618e-13 0 0 5.59254e-11 0 2.32717e-10 7.03372e-10 5.74009e-12 2.34629e-10 2.93814e-10 1.99627e-12 1.00841e-07 2.68709e-10 0 2.6926e-10 3.0646e-10 0.000142564 5.90862e-11 1.10588e-10 1.06913e-10 1.45734e-11 6.75368e-11 0 1.18308e-11 2.0751e-09 5.21649e-12 9.81143e-11 9.43524e-11 3.63404e-11 2.93642e-10 1.86653e-10 2.14433e-09 7.56035e-12 0.00961349 0.00113527 0 6.2641e-08 0 9.41669e-07 0 0.000674038 0 0.234995 0 0 0 0 0 0 0 5.49445e-13 9.41805e-14 0 0 7.12463e-14 0 2.13175e-07 0.00108642 4.75533e-12 4.29118e-12 9.12721e-05 5.0995e-10 5.17727e-12 4.96986e-12 5.12589e-12 5.10222e-12 6.75368e-07 2.35434e-12 0.00661467 1.37838e-12 9.59508e-13 5.27811e-07 1.40913e-12 9.23229e-10 1.67125e-09 8.26974e-13 1.14732e-09 9.17904e-13 7.26472e-13 0.00410236 4.0262e-13 0.00278547 3.46389e-12 4.96023e-12 9.54535e-13 7.42671e-11 0 2.77822e-10 2.89859e-10 2.82781e-10 0 2.14291e-07 1.0614e-10 5.66711e-11 0 2.84586e-10 0 0 5.08417e-12 0 4.96766e-05 0 4.99035e-12 4.16618e-13 0 0 7.26871e-12 6.20427e-11 4.19508e-13 5.24989e-11 2.04662e-05 2.59079e-08 2.8527e-10 0.160762 5.32358e-11 0 5.35032e-11 0.000679892 3.05966e-11 1.61864e-11 4.91222e-11 0.239536 5.09445e-12 4.97347e-12 4.94564e-12 4.93196e-12 0 6.24783e-12 6.49914e-12 0.00117167 0.12201 0.000824534 0.172567 5.07753e-12 0 0 0.161571 2.26402e-06 0 0 0 5.56812e-13 3.19144e-13 4.43457e-13 0 0 0 0.235749 4.2838e-13 3.60022e-13 1.98034e-13 1.22901e-13 1.44406e-13 1.35776e-13 0.0290059 2.90925e-11 7.28624e-07 5.65581e-14 0.00526661 0.0816068 1.28838e-13 0.000468835 4.93544e-14 5.47202e-13 2.98414e-13 7.7642e-05 2.43046e-13 0.0028132 3.25579e-13 1.4917e-13 0 7.6513e-14 9.74093e-14 9.00823e-14 1.89245e-13 0 0 1.51345e-05 0.225964 6.84793e-14 1.08655e-13 0 1.30856e-10 2.1012e-14 0 0.00459264 3.19747e-14 6.61933e-14 3.91765e-14 1.78689e-13 0 0 1.2842e-12 5.37373e-12 4.35651e-13 2.87009e-10 1.59485e-14 2.78343e-08 0 1.90325e-06 1.92669e-06 3.001e-07 3.97724e-07 1.68491e-08 7.14023e-10 2.37325e-08 0 0 0 2.70389e-08 0 2.54034e-08 3.17189e-08 2.468e-08 4.45509e-10 2.50162e-08 2.38072e-08 2.97358e-08 0.00269651 0 3.61986e-08 0 0 2.43329e-09 1.5517e-06 0.00229265 2.34589e-08 2.27951e-08 0.231163 2.30498e-08 2.20264e-08 9.36735e-09 2.52582e-08 2.44333e-11 2.4153e-08 3.31345e-15 2.72064e-08 2.67144e-08 0 2.5771e-08 3.37789e-06 2.76335e-08 2.56193e-08 0 2.58839e-08 2.62636e-08 0 0 1.0599e-06 1.87674e-06 6.19054e-07 7.4696e-10 1.98192e-09 2.96995e-08 9.47804e-09 8.34588e-10 1.78995e-08 7.70253e-09 1.94179e-05 7.60307e-10 7.59632e-10 6.8985e-10 7.40301e-10 2.66022e-06 2.51825e-08 7.48403e-10 7.57603e-10 0.161249 7.55266e-10 0.231206 2.95441e-06 3.14896e-13 0 7.60359e-10 1.95544e-08 1.33966e-08 0.00278544 1.16239e-08 6.15876e-08 4.39576e-11 1.22357e-08 1.06691e-09 7.20611e-09 1.11148e-08 9.56408e-09 8.04446e-11 8.12273e-10 7.4432e-10 2.9779e-07 0 7.24867e-10 7.24416e-10 0 2.38061e-14 7.16754e-10 0 7.19478e-10 8.72832e-10 0.0039958 4.7428e-08 1.66538e-08 7.18389e-10 0 2.21323e-06 1.15355e-15 0 2.55618e-08 2.22381e-08 0.000100599 1.19461e-08 1.3938e-07 2.05074e-11 2.56139e-08 2.89581e-09 2.56047e-08 1.05913e-08 1.47117e-08 0 0.00261515 5.70415e-05 2.6442e-08 9.66529e-09 8.44149e-09 2.69432e-11 0 2.61149e-08 9.07286e-10 2.1916e-08 3.9772e-14 2.0921e-08 0.112278 2.06766e-08 2.09594e-08 2.06386e-08 0 1.10758e-06 2.06485e-08 0 2.08582e-08 2.80673e-05 0.00244066 0 2.1359e-08 0.23256 1.08879e-08 9.27328e-09 0 6.96743e-09 6.67777e-09 0 9.29504e-09 0.000476454 0 9.67729e-09 2.09986e-08 0 8.88588e-09 9.13283e-10 2.81163e-09 5.73032e-09 0 0.00148799 0.00571293 8.88508e-10 9.1198e-10 0.000518224 1.0395e-08 0.00552854 0 7.05141e-10 0 7.13151e-10 7.14287e-10 4.11293e-06 2.76624e-13 3.2294e-05 7.06184e-10 0.0223535 7.00921e-10 1.68509e-05 0 6.21323e-09 6.78583e-09 4.64341e-09 0 0 9.30697e-10 0 0 1.59029e-09 1.66607e-13 0 2.09533e-09 5.76522e-09 0 0 8.89295e-10 8.72948e-10 1.49216e-06 0 8.63507e-10 0 8.5162e-10 6.1443e-09 9.03691e-10 9.50706e-10 3.87597e-06 9.63632e-10 3.77584e-09 0 1.32158e-13 8.48015e-05 2.15794e-08 0 7.04583e-10 1.38903e-11 0.122922 2.16024e-11 0 1.10827e-11 1.33962e-11 2.57646e-11 2.65735e-11 0 0.00066186 0 2.05629e-05 0.196656 1.51674e-13 5.78554e-12 5.63201e-12 0.000587003 6.00209e-12 0.0453433 6.17229e-12 6.44329e-12 0.00911687 5.54401e-12 3.14188e-11 4.15805e-12 0.215926 2.28721e-11 5.52219e-12 2.79699e-11 0 0.0997654 4.99005e-12 2.23737e-11 0 0.161974 1.44774e-08 0.239883 5.43349e-06 4.66937e-14 0.0374218 4.67891e-14 2.61749e-06 7.44751e-14 0 6.3355e-14 4.68098e-14 0 0 1.62274e-11 2.32073e-11 0.0042666 0 1.29107e-13 8.47548e-14 1.27246e-13 0 5.69268e-14 8.1551e-14 6.12175e-14 0.000107434 0 6.4149e-14 3.4936e-12 5.88314e-14 0 1.52805e-05 0.00518477 1.73115e-10 6.00877e-15 1.57315e-12 5.71067e-15 1.40545e-05 5.74499e-14 7.19676e-14 2.13659e-13 1.49712e-13 8.05632e-11 1.01186e-13 1.21801e-13 8.53915e-14 6.9672e-12 1.11046e-13 0 0 9.05126e-14 6.83669e-05 1.01755e-13 7.4267e-14 1.26094e-10 0 3.33192e-07 0 0 7.45214e-14 0 7.71305e-15 0 0 6.49318e-14 5.45766e-15 6.68912e-05 4.24361e-12 0 4.45829e-15 4.46787e-14 1.58145e-13 2.2692e-11 1.81603e-11 2.26762e-11 0 2.18133e-11 0.00288392 0.0087357 2.17672e-11 2.36623e-11 0 1.18569e-11 0.00115222 2.76171e-06 6.91202e-12 5.82969e-12 0 2.13345e-13 4.63695e-12 8.30378e-12 6.31084e-12 0 1.0835e-11 0 0 0 4.73241e-12 0.191683 4.49091e-12 0 0.0027271 2.24225e-12 0.03134 2.27588e-12 0.0321953 0.00147909 3.25904e-12 1.50811e-08 4.18512e-12 3.32656e-12 0 2.40946e-12 3.11008e-12 2.12597e-12 2.63767e-12 1.69658e-12 0.00122586 2.88633e-12 9.55079e-10 2.08709e-12 0 0.00120637 0.000754483 5.62025e-05 7.81748e-14 8.06466e-14 8.43041e-14 0.0408689 5.67485e-14 0 6.29218e-14 4.23644e-14 4.3747e-14 3.75348e-12 0.0325651 3.36317e-15 4.82479e-07 0 4.45769e-15 7.11701e-14 7.32247e-14 2.84579e-07 7.5096e-14 0 4.13238e-06 7.8407e-14 4.34477e-15 0.0660216 4.43229e-14 3.94795e-14 9.95773e-13 3.94905e-14 0.0320775 5.18548e-08 1.96616e-12 0.00478457 3.93912e-14 4.40909e-05 1.88935e-12 7.71909e-10 3.91297e-14 0 7.15424e-14 0 4.51998e-15 0.000259825 0.000308914 9.46924e-05 4.46949e-15 0.000209475 0.0239503 0 4.49322e-15 1.32334e-12 4.1206e-14 0 4.40732e-15 1.90515e-12 0.00297808 5.48014e-05 4.08366e-15 8.9604e-10 0 1.55818e-06 6.27212e-15 0 0 0.155569 1.45291e-05 0 0 0.00403269 0 0.0172656 0.0171016 1.06388e-13 0.0803444 0 0.00240062 0.00250692 6.45986e-09 0.00246546 0.00212183 0.00253487 0.00252044 0.133235 1.4355e-06 0.109013 0 0.0831229 0 0.0707771 0.00310703 0.00330376 0.00726727 0.149835 0.00240611 0.00294095 0 3.54435e-13 0.0587692 0.161354 0.00269638 0.00314517 1.75096e-06 0.00345891 0.00310806 5.48383e-13 0.00393567 0.00309709 0 0.00377978 1.47756e-06 0.00361867 0.00283043 0.00242743 0.00274005 0 0.00326318 0.00256315 0.00256254 0 3.9128e-10 1.33742e-05 0.00266942 0.00272164 9.1859e-10 0.00252818 0 0 0.000249738 0.000657144 0.000670825 0.000633733 0.053623 0.000618956 6.15731e-07 0 0.000631163 0.00323858 0.000610819 0.000191689 1.37168e-14 0.00290713 1.49265e-15 0.00288988 1.74493e-06 0 0.00297962 0.0136204 0.00296546 0.00294758 0.00293982 0.00304467 0 0 0.00295369 0.00296374 0.0132242 1.54691e-13 0.00294037 0 0.00295962 0.0902924 0.00292606 0.00294666 1.06073e-14 0 0 8.43415e-07 0.000431944 0.003468 0.00204335 0 0.08055 0.00251684 0.00472363 0 0 1.88378e-15 0.00534088 0.00124155 0.00306848 0.236638 0.0853162 0.212813 0.172102 0.178398 0.0384924 0.0429906 0.123256 0.139386 0.0348501 0.0275394 0.22613 9.50907e-05 0.137765 0 0.084014 0 0.00336229 0.0140125 0.0174968 0.204147 0.25706 0.191335 0.0658469 0 0.144904 0.218241 0.206101 0.247571 0.243343 0.226474 0.256288 0.0416219 0.0687312 0.0520827 0.255371 0.255256 0.115087 0.249888 0.00309859 0.00124212 0.0277883 0 0.00369092 0.00427053 0 0.00412616 0.00402196 0 0.00425376 0.00463645 0 0.00456834 1.53452e-14 0.00448295 0.00457018 0 0.000890393 1.35924e-06 0.00463137 0 0.00486162 0.00499254 0 0.00497912 1.01963e-14 0.0050144 0 0.00498352 0.00497528 0 3.20027e-06 0.00580914 0.00489005 0.0804207 0.00535354 0.00556009 0.00470974 0.010032 0.00565698 0.0050934 0.0052122 0.0971499 2.61132e-13 0 0 0.00524024 6.7093e-06 0.00571399 0.00505278 0.00512741 3.2918e-15 0.00594984 0 0.02095 0.000545936 0.00586718 0 5.80397e-12 0.00512588 0.000635103 0.000628188 1.71683e-12 0 0.000894421 0.000621925 0.000612317 0 0.000662946 1.66215e-15 0.00037578 1.72174e-07 0.000332508 0 0.000313692 4.71658e-14 0.000307882 3.58646e-10 0 0.000337503 0 0.000309954 0.0482303 0.000387412 0.000609223 0.000608656 0 3.82429e-07 7.9384e-07 0.000612091 0 0.00520808 0.00514391 0 3.85922e-05 2.34576e-11 0.00028762 0 0.000136547 0.000274893 0.000269641 0.00255253 0.000254681 0 7.61792e-15 0.000255967 0 0.000295482 7.6906e-05 0 2.13077e-11 0.000246812 0.0586255 0 3.25742e-11 6.39755e-09 3.01767e-12 0.000328846 0.000299772 0 0.000323597 0 5.41702e-09 1.25055e-09 6.06163e-09 4.00362e-09 6.10161e-09 0 4.81866e-09 0 0 0.0162987 0 4.88521e-09 0 3.51283e-09 0.000255221 0.000276677 1.70301e-06 3.78617e-15 0.000245753 0.0865414 0 0.000250983 0.00023995 0.000264192 0.000290785 0 0 0.000244723 2.46004e-07 3.32133e-05 0 0.000238559 0 0 0 0 0.00024179 0.0445455 0 8.10439e-06 0.000258035 0 0 0 0 0.00521632 0.00522729 0 0.00596174 0.00575299 0.00592945 8.44044e-11 0.00580256 0.00119017 0.0057558 0.00576969 9.89113e-09 2.59018e-07 0.00584302 0.00577341 0.00138684 0 0.00109621 0.00575289 0.0056979 0.000172337 1.45289e-07 0 2.07098e-12 0.00595677 0.00567131 0 0.00567762 0.00568042 0 0.00565785 0.00558674 0 0.00598613 0 0.00565315 0.00565503 0 0 2.0421e-05 0.00565729 0 2.76342e-07 2.4454e-14 0.00565056 0.00566663 0.00565327 0.00522411 0 0.00591866 2.57678e-08 0 0.00561259 8.18027e-11 3.2117e-15 0.00514733 0.00512763 3.62633e-15 0.00515651 0.00518885 0 0.00550073 0.00859996 6.23211e-10 1.04744e-06 0 4.26817e-11 0.00402898 0.00488789 0.000196476 0